                               Psi4 1.3.2 release

  ==> Input File <==

--------------------------------------------------------------------------

memory 600 mb

molecule HeH {
    0 1
    He
    --
    -1 1
    H 1 0.5
}

set {
    basis sto-3g
    basis_guess sto-3g
    guess sad
}

properties('scf')
--------------------------------------------------------------------------

    Molecular point group: c2v
  Charge       = -1
  Multiplicity = 1
  Basis Set: STO-3G
    Blend: STO-3G
  Basis Set: (STO-3G AUX)
    Blend: DEF2-SVP-JKFIT
  @DF-RHF Final Energy:    -1.63488830073778
    Total Energy =                         -1.6348883007377779
    Molecular point group: c2v

    Geometry (in Angstrom), charge = -1, multiplicity = 1:

       Center              X                  Y                   Z               Mass
    ------------   -----------------  -----------------  -----------------  -----------------
         HE           0.000000000000     0.000000000000    -0.100572742950     4.002603254130
         H            0.000000000000     0.000000000000     0.399427257050     1.007825032230

  Charge       = -1
  Multiplicity = 1
  Basis Set: STO-3G
    Blend: STO-3G
  Basis Set: (STO-3G AUX)
    Blend: DEF2-SVP-JKFIT

    Orbital Energies [Eh]
    ---------------------

    Doubly Occupied:

       1A1    -0.539628     2A1     0.881454

  @DF-RHF Final Energy:    -1.63488830073780

   => Energetics <=

    Nuclear Repulsion Energy =              2.1167088426800000
    One-Electron Energy =                  -8.1868469098481516
    Two-Electron Energy =                   4.4352497664303536
    Total Energy =                         -1.6348883007377983

  Dipole Moment: [D]
     X:     0.0000      Y:     0.0000      Z:    -2.8849     Total:     2.8849

*** Psi4 exiting successfully. Buy a developer a beer!
